    #         X           Y           Z        CHARGE     MIN DIST    ATOMIC VOL
 --------------------------------------------------------------------------------
    1      0.0047     11.4210     21.1220      7.1877      0.9029     91.2024
    2      1.1036      1.9045      3.1825      7.2087      0.9023     12.8130
    3      2.1656     -0.0581      6.4606      7.1410      0.9045     14.0074
    4      0.6990      1.9045      8.2267      7.1592      0.8716     98.6812
    5      9.8894      5.7129      4.8357      7.2160      0.9123     12.8191
    6      2.2011      0.0033      1.6180      7.1639      0.9145     12.6041
    7      3.2911      9.5237     21.1220      7.1898      0.9044     66.4138
    8      4.3963      0.0035      3.1825      7.2038      0.9141     12.7497
    9      5.5215     -1.9454      6.3220      7.1807      0.8973     12.3483
   10      4.5986     -0.3469      8.2267      7.1571      0.9184     89.5007
   11      3.3016      9.5163      4.8357      7.2152      0.8971     12.8167
   12      5.4958     -1.9009      1.5820      7.2057      0.9070     12.7832
   13      6.5975     -3.8091     21.1007      7.1924      0.9157     96.3692
   14      7.7053     -1.8904      3.1360      7.1835      0.9034     12.5816
   15      8.7494     -3.8091      6.3220      7.1816      0.9166     12.3629
   16      7.6862     -1.9234      8.0419      7.1739      0.8903     64.0403
   17      6.5975     -3.8091      4.7538      7.1942      0.8996     12.4604
   18      8.8009     -3.8091      1.5820      7.2059      0.9116     12.7753
   19      0.0047      3.8152     21.1220      7.1879      0.9165     93.2629
   20      1.0993      5.7141      3.1793      7.2055      0.9128     12.7862
   21      2.1656      3.8672      6.4606      7.1378      0.9610     13.9721
   22      1.0915      5.7276      8.0780      7.1376      0.8995     83.6049
   23      9.8894     -1.9038      4.8357      7.2140      0.9033     12.7929
   24      2.2011      3.8058      1.6180      7.1589      0.9049     12.5664
   25      3.2987      1.9045     21.1294      7.1883      0.9066     78.5027
   26      4.3963      3.8055      3.1825      7.2115      0.9045     12.8271
   27      5.5650      1.9045      6.4606      7.1369      0.9032     13.9624
   28      4.5986      4.1560      8.2267      7.1624      0.8507     93.2026
   29      3.2987      1.9045      4.8287      7.0787      0.9118     13.9301
   30      5.4941      1.9045      1.6180      7.1680      0.9153     12.6163
   31      6.6005      0.0071     21.1220      7.1876      0.9026     72.9077
   32      7.6976      1.9045      3.1793      7.2033      0.9104     12.7503
   33      8.8000      0.0058      6.4034      7.1584      0.9148     12.5542
   34      7.7132      1.9045      8.0780      7.1391      0.9460     73.0612
   35      6.6016     -0.0056      4.8357      7.2113      0.9010     12.7802
   36      8.7990      0.0041      1.5974      7.1935      0.9149     12.6815
   37      0.0000      7.6181     21.1354      7.1873      0.9052     67.8811
   38      1.0993      9.5222      3.1793      7.2058      0.9099     12.7747
   39      2.1924      7.6181      6.4034      7.1588      0.9141     12.5493
   40      1.0915      9.5087      8.0780      7.1395      0.9465     74.0266
   41      0.0000      7.6181      4.8421      7.2114      0.9154     12.7698
   42      2.1945      7.6181      1.5974      7.1882      0.9143     12.6322
   43      3.2911      5.7126     21.1220      7.1897      0.9233     71.6415
   44      4.3820      7.6181      3.1360      7.1824      0.9034     12.5658
   45      5.5215      5.7545      6.3220      7.1828      0.9159     12.3569
   46      4.4202      7.6181      8.0419      7.1739      0.8995     69.3648
   47      3.3016      5.7199      4.8357      7.2149      0.9015     12.8076
   48      5.4958      5.7099      1.5820      7.2030      0.9119     12.7363
   49      6.6005      3.8019     21.1220      7.1886      0.9020     81.4597
   50      7.7053      5.6994      3.1360      7.1815      0.9046     12.5907
   51      8.8000      3.8032      6.4034      7.1546      0.9131     12.5158
   52      7.6862      5.7325      8.0419      7.1755      0.9090     63.3770
   53      6.6016      3.8147      4.8357      7.2139      0.9116     12.7972
   54      8.7990      3.8050      1.5974      7.1900      0.9141     12.6565
   55      3.2987      1.9045      7.9641      8.4058      1.3074     49.1740
   56      9.8549      5.7336      7.2324      9.6046      1.1201     18.4451
   57      2.2020      0.0048      4.0570      9.6040      1.1261     15.3614
   58      1.1094      1.9045      0.7869      9.6095      1.1118     18.9300
   59      3.3367      9.4969      7.2324      9.6084      1.0856     18.4135
   60      5.4992     -1.9067      3.9679      9.5788      1.1049     15.0240
   61      4.3934      0.0085      0.7869      9.6112      1.1174     18.9086
   62      6.5975     -3.8091      7.1768      9.6116      1.0998     18.3903
   63      8.7942     -3.8091      3.9679      9.5773      1.1323     14.9826
   64      7.7004     -1.8988      0.7512      9.6341      1.1174     19.2930
   65      9.8549     -1.9246      7.2324      9.6106      1.0571     18.4689
   66      2.2020      3.8042      4.0570      9.6034      1.0933     15.3821
   67      1.1012      5.7108      0.7801      9.6134      1.1034     18.9080
   68      5.4923      1.9045      4.0570      9.6072      1.1009     15.4156
   69      4.3934      3.8005      0.7869      9.6106      1.1124     18.9001
   70      6.6008     -0.0458      7.2324      9.6086      1.1003     18.4159
   71      8.7972      0.0010      3.9965      9.6083      1.1014     15.2597
   72      7.6938      1.9045      0.7801      9.6136      1.1123     18.9050
   73      0.0000      7.6181      7.2311      9.6056      1.1126     18.7619
   74      2.1980      7.6181      3.9965      9.6123      1.1126     15.2920
   75      1.1012      9.5255      0.7801      9.6100      1.1120     18.9409
   76      3.3367      5.7394      7.2324      9.6062      1.0654     18.5450
   77      5.4992      5.7158      3.9679      9.5759      1.1316     15.0051
   78      4.3917      7.6181      0.7512      9.6339      1.1102     19.3259
   79      6.6008      3.8549      7.2324      9.6100      1.1147     18.4409
   80      8.7972      3.8081      3.9965      9.6101      1.1105     15.2566
   81      7.7004      5.7079      0.7512      9.6321      1.1096     19.2278
 --------------------------------------------------------------------------------
    VACUUM CHARGE:               0.0000
    VACUUM VOLUME:               0.0000
    NUMBER OF ELECTRONS:       646.0000
