    #         X           Y           Z        CHARGE     MIN DIST    ATOMIC VOL
 --------------------------------------------------------------------------------
    1      9.8332      5.6783     21.2211      7.1877      0.9063    110.3307
    2      1.0860      1.8926      3.1943      7.2067      0.9038     12.6291
    3      2.1996      0.0246      6.4451      7.1040      0.8917     12.5717
    4      1.1586      1.8926      8.0827      7.0775      0.9067     67.0603
    5      0.0049     -0.0021      4.8842      7.2022      0.8935     12.6672
    6      2.1866      0.0020      1.6216      7.1783      0.9092     12.5639
    7      3.2791      9.4624     21.2211      7.1888      0.8959     95.4155
    8      4.3742     -0.0058      3.1943      7.2090      0.9060     12.6473
    9      5.4584     -1.8838      6.4604      7.1838      0.9078     12.6291
   10      4.3379      0.0570      8.0827      7.0768      0.9340     69.6859
   11      3.2739     -1.8894      4.8842      7.2010      0.8922     12.6394
   12      5.4639     -1.8931      1.6253      7.1797      0.8984     12.5391
   13      6.5563     -3.7853     21.2224      7.1893      0.9002     73.2869
   14      7.6492     -1.8922      3.1991      7.2056      0.9060     12.6690
   15      8.7519     -3.7853      6.4604      7.1845      0.9029     12.6315
   16      7.6486     -1.8933      8.1220      7.1881      0.9122     78.3382
   17      6.5563     -3.7853      4.8823      7.2033      0.9125     12.7022
   18      8.7411     -3.7853      1.6253      7.1822      0.8982     12.5862
   19      9.8332     -1.8930     21.2211      7.1886      0.9012     95.8132
   20      1.0922      5.6788      3.1950      7.2072      0.9088     12.6890
   21      2.1996      3.7606      6.4451      7.1049      0.9572     12.5868
   22      1.0960      5.6722      8.1097      7.1840      0.9143     88.5514
   23      0.0049      3.7873      4.8842      7.2001      0.9139     12.6382
   24      2.1866      3.7832      1.6216      7.1782      0.8980     12.5312
   25      3.2781      1.8926     21.2201      7.1876      0.9049     80.0586
   26      4.3742      3.7911      3.1943      7.2067      0.9056     12.6382
   27      5.4351      1.8926      6.4451      7.1055      0.8919     12.5826
   28      4.3379      3.7282      8.0827      7.0769      0.9058     73.6084
   29      3.2781      1.8926      4.8501      7.1413      0.9069     12.4926
   30      5.4612      1.8926      1.6216      7.1818      0.9101     12.5699
   31      6.5565     -0.0012     21.2211      7.1892      0.8939     66.4668
   32      7.6501      1.8926      3.1950      7.2086      0.9047     12.7077
   33      8.7421      0.0007      6.4471      7.1785      0.9027     12.5669
   34      7.6424      1.8926      8.1097      7.1849      0.8926     80.9107
   35      6.5556      0.0053      4.8842      7.1966      0.9097     12.5935
   36      8.7407     -0.0017      1.6245      7.1814      0.9015     12.5415
   37      0.0000      7.5705     21.2280      7.1889      0.9017     66.5382
   38      1.0922      9.4622      3.1950      7.2095      0.9042     12.7059
   39      2.1847      7.5705      6.4471      7.1821      0.9022     12.5892
   40      1.0960      9.4689      8.1097      7.1852      0.8961     72.3720
   41      0.0000      7.5705      4.8755      7.2109      0.8932     12.6328
   42      2.1874      7.5705      1.6245      7.1833      0.9212     12.5614
   43      3.2791      5.6787     21.2211      7.1876      0.9169     66.7575
   44      4.3703      7.5705      3.1991      7.2088      0.9065     12.6938
   45      5.4584      5.6690      6.4604      7.1885      0.9013     12.6793
   46      4.3716      7.5705      8.1220      7.1872      0.9127    100.5786
   47      3.2739      5.6747      4.8842      7.2015      0.9135     12.6569
   48      5.4639      5.6784      1.6253      7.1804      0.8972     12.5433
   49      6.5565      3.7865     21.2211      7.1883      0.9054     74.0707
   50      7.6492      5.6775      3.1991      7.2107      0.8997     12.6974
   51      8.7421      3.7846      6.4471      7.1760      0.9102     12.5337
   52      7.6486      5.6786      8.1220      7.1897      0.9082     89.1635
   53      6.5556      3.7800      4.8842      7.2025      0.9238     12.6630
   54      8.7407      3.7870      1.6245      7.1818      0.9094     12.5633
   55      3.2781      1.8926      7.2438      1.3368      1.0125     15.8385
   56      0.0138      0.0034      7.2832      9.6125      1.1011     19.0981
   57      2.1918      0.0110      4.0444      9.6189      1.1073     15.2481
   58      1.0933      1.8926      0.7852      9.6100      1.1131     18.7005
   59      3.2742     -1.8790      7.2832      9.6128      1.1241     18.9428
   60      5.4619     -1.8897      4.0374      9.6139      1.1028     15.2560
   61      4.3706      0.0005      0.7852      9.6110      1.1053     18.7271
   62      6.5563     -3.7853      7.2908      9.6155      1.1007     18.8274
   63      8.7451     -3.7853      4.0374      9.6176      1.1164     15.2850
   64      7.6492     -1.8923      0.7832      9.6149      1.1181     18.6684
   65      0.0138      3.7818      7.2832      9.6176      1.1254     18.9845
   66      2.1918      3.7743      4.0444      9.6169      1.0918     15.2246
   67      1.0932      5.6770      0.7871      9.6101      1.0976     18.6962
   68      5.4509      1.8926      4.0444      9.6187      1.1063     15.2524
   69      4.3706      3.7848      0.7852      9.6106      1.1088     18.6696
   70      6.5464      0.0102      7.2832      9.6182      1.1069     19.0183
   71      8.7421      0.0008      4.0347      9.6192      1.1053     15.2620
   72      7.6480      1.8926      0.7871      9.6099      1.1046     18.7246
   73      0.0000      7.5705      7.2725      9.6059      1.1093     18.7700
   74      2.1845      7.5705      4.0347      9.6160      1.1120     15.2294
   75      1.0932      9.4640      0.7871      9.6095      1.1042     18.6219
   76      3.2742      5.6642      7.2832      9.6104      1.1260     19.0491
   77      5.4619      5.6750      4.0374      9.6137      1.1046     15.2536
   78      4.3704      7.5705      0.7832      9.6085      1.0949     18.6835
   79      6.5464      3.7750      7.2832      9.6120      1.1022     19.0769
   80      8.7421      3.7845      4.0347      9.6159      1.1036     15.2518
   81      7.6492      5.6776      0.7832      9.6096      1.1125     18.6775
 --------------------------------------------------------------------------------
    VACUUM CHARGE:               0.0000
    VACUUM VOLUME:               0.0000
    NUMBER OF ELECTRONS:       639.0000
